TITLE = FTLE
VARIABLES = "X", "Y", "FTLE"
ZONE T= "A", I=100, J=100, F=POINT
  0.00000000  -1.00000000   0.00000000 
  0.00000000  -0.97979798   0.00000000 
  0.00000000  -0.95959596   0.00000000 
  0.00000000  -0.93939394   0.00000000 
  0.00000000  -0.91919192   0.00000000 
  0.00000000  -0.89898990   0.00000000 
  0.00000000  -0.87878788   0.00000000 
  0.00000000  -0.85858586   0.00000000 
  0.00000000  -0.83838384   0.00000000 
  0.00000000  -0.81818182   0.00000000 
  0.00000000  -0.79797980   0.00000000 
  0.00000000  -0.77777778   0.00000000 
  0.00000000  -0.75757576   0.00000000 
  0.00000000  -0.73737374   0.00000000 
  0.00000000  -0.71717172   0.00000000 
  0.00000000  -0.69696970   0.00000000 
  0.00000000  -0.67676768   0.00000000 
  0.00000000  -0.65656566   0.00000000 
  0.00000000  -0.63636364   0.00000000 
  0.00000000  -0.61616162   0.00000000 
  0.00000000  -0.59595960   0.00000000 
  0.00000000  -0.57575758   0.00000000 
  0.00000000  -0.55555556   0.00000000 
  0.00000000  -0.53535354   0.00000000 
  0.00000000  -0.51515152   0.00000000 
  0.00000000  -0.49494949   0.00000000 
  0.00000000  -0.47474747   0.00000000 
  0.00000000  -0.45454545   0.00000000 
  0.00000000  -0.43434343   0.00000000 
  0.00000000  -0.41414141   0.00000000 
  0.00000000  -0.39393939   0.00000000 
  0.00000000  -0.37373737   0.00000000 
  0.00000000  -0.35353535   0.00000000 
  0.00000000  -0.33333333   0.00000000 
  0.00000000  -0.31313131   0.00000000 
  0.00000000  -0.29292929   0.00000000 
  0.00000000  -0.27272727   0.00000000 
  0.00000000  -0.25252525   0.00000000 
  0.00000000  -0.23232323   0.00000000 
  0.00000000  -0.21212121   0.00000000 
  0.00000000  -0.19191919   0.00000000 
  0.00000000  -0.17171717   0.00000000 
  0.00000000  -0.15151515   0.00000000 
  0.00000000  -0.13131313   0.00000000 
  0.00000000  -0.11111111   0.00000000 
  0.00000000  -0.09090909   0.00000000 
  0.00000000  -0.07070707   0.00000000 
  0.00000000  -0.05050505   0.00000000 
  0.00000000  -0.03030303   0.00000000 
  0.00000000  -0.01010101   0.00000000 
  0.00000000   0.01010101   0.00000000 
  0.00000000   0.03030303   0.00000000 
  0.00000000   0.05050505   0.00000000 
  0.00000000   0.07070707   0.00000000 
  0.00000000   0.09090909   0.00000000 
  0.00000000   0.11111111   0.00000000 
  0.00000000   0.13131313   0.00000000 
  0.00000000   0.15151515   0.00000000 
  0.00000000   0.17171717   0.00000000 
  0.00000000   0.19191919   0.00000000 
  0.00000000   0.21212121   0.00000000 
  0.00000000   0.23232323   0.00000000 
  0.00000000   0.25252525   0.00000000 
  0.00000000   0.27272727   0.00000000 
  0.00000000   0.29292929   0.00000000 
  0.00000000   0.31313131   0.00000000 
  0.00000000   0.33333333   0.00000000 
  0.00000000   0.35353535   0.00000000 
  0.00000000   0.37373737   0.00000000 
  0.00000000   0.39393939   0.00000000 
  0.00000000   0.41414141   0.00000000 
  0.00000000   0.43434343   0.00000000 
  0.00000000   0.45454545   0.00000000 
  0.00000000   0.47474747   0.00000000 
  0.00000000   0.49494949   0.00000000 
  0.00000000   0.51515152   0.00000000 
  0.00000000   0.53535354   0.00000000 
  0.00000000   0.55555556   0.00000000 
  0.00000000   0.57575758   0.00000000 
  0.00000000   0.59595960   0.00000000 
  0.00000000   0.61616162   0.00000000 
  0.00000000   0.63636364   0.00000000 
  0.00000000   0.65656566   0.00000000 
  0.00000000   0.67676768   0.00000000 
  0.00000000   0.69696970   0.00000000 
  0.00000000   0.71717172   0.00000000 
  0.00000000   0.73737374   0.00000000 
  0.00000000   0.75757576   0.00000000 
  0.00000000   0.77777778   0.00000000 
  0.00000000   0.79797980   0.00000000 
  0.00000000   0.81818182   0.00000000 
  0.00000000   0.83838384   0.00000000 
  0.00000000   0.85858586   0.00000000 
  0.00000000   0.87878788   0.00000000 
  0.00000000   0.89898990   0.00000000 
  0.00000000   0.91919192   0.00000000 
  0.00000000   0.93939394   0.00000000 
  0.00000000   0.95959596   0.00000000 
  0.00000000   0.97979798   0.00000000 
  0.00000000   1.00000000   0.00000000 
  0.04545455  -1.00000000   0.00000000 
  0.04545455  -0.97979798   0.00313150 
  0.04545455  -0.95959596   0.00094947 
  0.04545455  -0.93939394   0.00000000 
  0.04545455  -0.91919192   0.00200209 
  0.04545455  -0.89898990   0.00073510 
  0.04545455  -0.87878788   0.00092455 
  0.04545455  -0.85858586   0.00000000 
  0.04545455  -0.83838384   0.00398795 
  0.04545455  -0.81818182   0.00197511 
  0.04545455  -0.79797980   0.00000000 
  0.04545455  -0.77777778   0.00999764 
  0.04545455  -0.75757576   0.00433454 
  0.04545455  -0.73737374   0.00000000 
  0.04545455  -0.71717172   0.01328273 
  0.04545455  -0.69696970   0.00857307 
  0.04545455  -0.67676768   0.00000000 
  0.04545455  -0.65656566   0.01001697 
  0.04545455  -0.63636364   0.00000000 
  0.04545455  -0.61616162   0.01717546 
  0.04545455  -0.59595960   0.00103009 
  0.04545455  -0.57575758   0.01259980 
  0.04545455  -0.55555556   0.00000000 
  0.04545455  -0.53535354   0.00253354 
  0.04545455  -0.51515152   0.00000000 
  0.04545455  -0.49494949   0.04837852 
  0.04545455  -0.47474747   0.08763036 
  0.04545455  -0.45454545   0.00000000 
  0.04545455  -0.43434343  -0.01770753 
  0.04545455  -0.41414141   0.00000000 
  0.04545455  -0.39393939   0.14417992 
  0.04545455  -0.37373737   0.09674940 
  0.04545455  -0.35353535   0.00000000 
  0.04545455  -0.33333333   0.69531243 
  0.04545455  -0.31313131   1.33478971 
  0.04545455  -0.29292929   0.00000000 
  0.04545455  -0.27272727   1.96094741 
  0.04545455  -0.25252525  13.37477755 
  0.04545455  -0.23232323  97.68172848 
  0.04545455  -0.21212121 305.70083363 
  0.04545455  -0.19191919 434.09275204 
  0.04545455  -0.17171717 292.26166815 
  0.04545455  -0.15151515  98.38498810 
  0.04545455  -0.13131313  14.40603351 
  0.04545455  -0.11111111   1.14461760 
  0.04545455  -0.09090909   1.04427164 
  0.04545455  -0.07070707   1.47064643 
  0.04545455  -0.05050505   0.41250781 
  0.04545455  -0.03030303  -0.15567953 
  0.04545455  -0.01010101   0.31618311 
  0.04545455   0.01010101   0.28000490 
  0.04545455   0.03030303  -0.18872480 
  0.04545455   0.05050505   0.35480446 
  0.04545455   0.07070707   1.47611258 
  0.04545455   0.09090909   1.02206573 
  0.04545455   0.11111111   1.11727333 
  0.04545455   0.13131313  14.32243170 
  0.04545455   0.15151515  98.32178730 
  0.04545455   0.17171717 292.24836385 
  0.04545455   0.19191919 434.26493021 
  0.04545455   0.21212121 305.81172586 
  0.04545455   0.23232323  97.68604393 
  0.04545455   0.25252525  13.36867693 
  0.04545455   0.27272727   1.98654755 
  0.04545455   0.29292929   0.00000000 
  0.04545455   0.31313131   1.33465560 
  0.04545455   0.33333333   0.69904473 
  0.04545455   0.35353535   0.00000000 
  0.04545455   0.37373737   0.09884931 
  0.04545455   0.39393939   0.14280085 
  0.04545455   0.41414141   0.00000000 
  0.04545455   0.43434343  -0.01568749 
  0.04545455   0.45454545   0.00000000 
  0.04545455   0.47474747   0.08796009 
  0.04545455   0.49494949   0.00000000 
  0.04545455   0.51515152   0.01807780 
  0.04545455   0.53535354   0.00330316 
  0.04545455   0.55555556   0.00000000 
  0.04545455   0.57575758   0.01308662 
  0.04545455   0.59595960   0.00048273 
  0.04545455   0.61616162   0.00000000 
  0.04545455   0.63636364   0.00754408 
  0.04545455   0.65656566   0.00980109 
  0.04545455   0.67676768   0.00000000 
  0.04545455   0.69696970   0.00856623 
  0.04545455   0.71717172   0.01280479 
  0.04545455   0.73737374   0.00000000 
  0.04545455   0.75757576   0.00415752 
  0.04545455   0.77777778   0.00000000 
  0.04545455   0.79797980   0.00019539 
  0.04545455   0.81818182   0.00191889 
  0.04545455   0.83838384   0.00000000 
  0.04545455   0.85858586  -0.00036327 
  0.04545455   0.87878788   0.00061341 
  0.04545455   0.89898990   0.00084174 
  0.04545455   0.91919192   0.00000000 
  0.04545455   0.93939394   0.00009040 
  0.04545455   0.95959596   0.00100232 
  0.04545455   0.97979798   0.00272316 
  0.04545455   1.00000000   0.00000000 
  0.09090909  -1.00000000   0.00000000 
  0.09090909  -0.97979798   0.00244433 
  0.09090909  -0.95959596   0.00052180 
  0.09090909  -0.93939394   0.00057570 
  0.09090909  -0.91919192   0.00177991 
  0.09090909  -0.89898990   0.00008789 
  0.09090909  -0.87878788   0.00089707 
  0.09090909  -0.85858586   0.00008393 
  0.09090909  -0.83838384   0.00268209 
  0.09090909  -0.81818182   0.00129672 
  0.09090909  -0.79797980   0.00147649 
  0.09090909  -0.77777778   0.00734859 
  0.09090909  -0.75757576   0.00334762 
  0.09090909  -0.73737374   0.00220441 
  0.09090909  -0.71717172   0.00958625 
  0.09090909  -0.69696970   0.00807785 
  0.09090909  -0.67676768   0.00644299 
  0.09090909  -0.65656566   0.00779008 
  0.09090909  -0.63636364   0.00819434 
  0.09090909  -0.61616162   0.01136114 
  0.09090909  -0.59595960  -0.00037479 
  0.09090909  -0.57575758   0.02005446 
  0.09090909  -0.55555556   0.01854820 
  0.09090909  -0.53535354   0.00612848 
  0.09090909  -0.51515152   0.02628122 
  0.09090909  -0.49494949   0.05559561 
  0.09090909  -0.47474747   0.10888645 
  0.09090909  -0.45454545   0.09181645 
  0.09090909  -0.43434343   0.01982910 
  0.09090909  -0.41414141   0.10785740 
  0.09090909  -0.39393939   0.16373636 
  0.09090909  -0.37373737   0.11686146 
  0.09090909  -0.35353535   0.29370217 
  0.09090909  -0.33333333   0.88903019 
  0.09090909  -0.31313131   1.21839430 
  0.09090909  -0.29292929   1.07417836 
  0.09090909  -0.27272727   1.87815141 
  0.09090909  -0.25252525  13.30445373 
  0.09090909  -0.23232323  98.21647637 
  0.09090909  -0.21212121 305.40438139 
  0.09090909  -0.19191919 432.21447262 
  0.09090909  -0.17171717 293.03058409 
  0.09090909  -0.15151515  99.13381918 
  0.09090909  -0.13131313  13.96677224 
  0.09090909  -0.11111111   1.10533276 
  0.09090909  -0.09090909   1.20253695 
  0.09090909  -0.07070707   1.81368825 
  0.09090909  -0.05050505   0.46844793 
  0.09090909  -0.03030303   0.01069311 
  0.09090909  -0.01010101   0.48698388 
  0.09090909   0.01010101   0.48699393 
  0.09090909   0.03030303   0.00406824 
  0.09090909   0.05050505   0.41090488 
  0.09090909   0.07070707   1.83106725 
  0.09090909   0.09090909   1.15086357 
  0.09090909   0.11111111   1.02892473 
  0.09090909   0.13131313  13.95035301 
  0.09090909   0.15151515  99.11501090 
  0.09090909   0.17171717 292.96177187 
  0.09090909   0.19191919 432.25394881 
  0.09090909   0.21212121 305.51183654 
  0.09090909   0.23232323  98.22623571 
  0.09090909   0.25252525  13.31694383 
  0.09090909   0.27272727   1.89530922 
  0.09090909   0.29292929   1.07242963 
  0.09090909   0.31313131   1.22039648 
  0.09090909   0.33333333   0.89788904 
  0.09090909   0.35353535   0.30261121 
  0.09090909   0.37373737   0.11447468 
  0.09090909   0.39393939   0.16401327 
  0.09090909   0.41414141   0.10899648 
  0.09090909   0.43434343   0.02096991 
  0.09090909   0.45454545   0.09163165 
  0.09090909   0.47474747   0.10938559 
  0.09090909   0.49494949   0.05625564 
  0.09090909   0.51515152   0.02724736 
  0.09090909   0.53535354   0.00572536 
  0.09090909   0.55555556   0.01907924 
  0.09090909   0.57575758   0.02062524 
  0.09090909   0.59595960   0.00017609 
  0.09090909   0.61616162   0.01147415 
  0.09090909   0.63636364   0.00777519 
  0.09090909   0.65656566   0.00839180 
  0.09090909   0.67676768   0.00611257 
  0.09090909   0.69696970   0.00747737 
  0.09090909   0.71717172   0.01014460 
  0.09090909   0.73737374   0.00199663 
  0.09090909   0.75757576   0.00301302 
  0.09090909   0.77777778   0.00793811 
  0.09090909   0.79797980   0.00125662 
  0.09090909   0.81818182   0.00126234 
  0.09090909   0.83838384   0.00315360 
  0.09090909   0.85858586  -0.00000170 
  0.09090909   0.87878788   0.00087863 
  0.09090909   0.89898990   0.00059359 
  0.09090909   0.91919192   0.00119974 
  0.09090909   0.93939394   0.00057301 
  0.09090909   0.95959596   0.00075066 
  0.09090909   0.97979798   0.00187893 
  0.09090909   1.00000000   0.00000000 
  0.13636364  -1.00000000   0.00000000 
  0.13636364  -0.97979798   0.00222292 
  0.13636364  -0.95959596   0.00055606 
  0.13636364  -0.93939394   0.00042390 
  0.13636364  -0.91919192   0.00128642 
  0.13636364  -0.89898990   0.00055453 
  0.13636364  -0.87878788   0.00066177 
  0.13636364  -0.85858586   0.00021587 
  0.13636364  -0.83838384   0.00330546 
  0.13636364  -0.81818182   0.00098984 
  0.13636364  -0.79797980   0.00164128 
  0.13636364  -0.77777778   0.00807780 
  0.13636364  -0.75757576   0.00290804 
  0.13636364  -0.73737374   0.00242181 
  0.13636364  -0.71717172   0.01052546 
  0.13636364  -0.69696970   0.00781433 
  0.13636364  -0.67676768   0.00504809 
  0.13636364  -0.65656566   0.00982135 
  0.13636364  -0.63636364   0.00786588 
  0.13636364  -0.61616162   0.01143376 
  0.13636364  -0.59595960   0.00184867 
  0.13636364  -0.57575758   0.01893123 
  0.13636364  -0.55555556   0.02196402 
  0.13636364  -0.53535354   0.00246950 
  0.13636364  -0.51515152   0.02728405 
  0.13636364  -0.49494949   0.05680243 
  0.13636364  -0.47474747   0.10343021 
  0.13636364  -0.45454545   0.09334277 
  0.13636364  -0.43434343   0.01742135 
  0.13636364  -0.41414141   0.11423710 
  0.13636364  -0.39393939   0.16585052 
  0.13636364  -0.37373737   0.10747027 
  0.13636364  -0.35353535   0.31402087 
  0.13636364  -0.33333333   0.91875640 
  0.13636364  -0.31313131   1.20967733 
  0.13636364  -0.29292929   1.11307478 
  0.13636364  -0.27272727   1.85096651 
  0.13636364  -0.25252525  13.30046571 
  0.13636364  -0.23232323  98.09541370 
  0.13636364  -0.21212121 305.04078667 
  0.13636364  -0.19191919 431.97359402 
  0.13636364  -0.17171717 293.49548994 
  0.13636364  -0.15151515  99.18334155 
  0.13636364  -0.13131313  14.00743401 
  0.13636364  -0.11111111   1.26040489 
  0.13636364  -0.09090909   1.29762982 
  0.13636364  -0.07070707   1.88571586 
  0.13636364  -0.05050505   0.58812516 
  0.13636364  -0.03030303   0.00889186 
  0.13636364  -0.01010101   0.58360250 
  0.13636364   0.01010101   0.58353413 
  0.13636364   0.03030303   0.00668341 
  0.13636364   0.05050505   0.57877357 
  0.13636364   0.07070707   1.88394248 
  0.13636364   0.09090909   1.26296151 
  0.13636364   0.11111111   1.21691920 
  0.13636364   0.13131313  13.96924097 
  0.13636364   0.15151515  99.16061440 
  0.13636364   0.17171717 293.48465876 
  0.13636364   0.19191919 431.95232318 
  0.13636364   0.21212121 305.05355658 
  0.13636364   0.23232323  98.10453477 
  0.13636364   0.25252525  13.30436334 
  0.13636364   0.27272727   1.85093635 
  0.13636364   0.29292929   1.11700077 
  0.13636364   0.31313131   1.20695509 
  0.13636364   0.33333333   0.91857326 
  0.13636364   0.35353535   0.31290812 
  0.13636364   0.37373737   0.10774819 
  0.13636364   0.39393939   0.16591333 
  0.13636364   0.41414141   0.11378339 
  0.13636364   0.43434343   0.01757870 
  0.13636364   0.45454545   0.09337222 
  0.13636364   0.47474747   0.10319248 
  0.13636364   0.49494949   0.05680445 
  0.13636364   0.51515152   0.02740723 
  0.13636364   0.53535354   0.00211043 
  0.13636364   0.55555556   0.02218902 
  0.13636364   0.57575758   0.01865954 
  0.13636364   0.59595960   0.00202725 
  0.13636364   0.61616162   0.01153577 
  0.13636364   0.63636364   0.00769150 
  0.13636364   0.65656566   0.01004252 
  0.13636364   0.67676768   0.00501569 
  0.13636364   0.69696970   0.00778463 
  0.13636364   0.71717172   0.01089681 
  0.13636364   0.73737374   0.00221449 
  0.13636364   0.75757576   0.00297269 
  0.13636364   0.77777778   0.00842277 
  0.13636364   0.79797980   0.00150941 
  0.13636364   0.81818182   0.00105231 
  0.13636364   0.83838384   0.00369503 
  0.13636364   0.85858586   0.00013862 
  0.13636364   0.87878788   0.00072698 
  0.13636364   0.89898990   0.00083456 
  0.13636364   0.91919192   0.00091083 
  0.13636364   0.93939394   0.00048129 
  0.13636364   0.95959596   0.00070523 
  0.13636364   0.97979798   0.00191180 
  0.13636364   1.00000000   0.00000000 
  0.18181818  -1.00000000   0.00000000 
  0.18181818  -0.97979798   0.00225912 
  0.18181818  -0.95959596   0.00050058 
  0.18181818  -0.93939394   0.00036732 
  0.18181818  -0.91919192   0.00121593 
  0.18181818  -0.89898990   0.00063579 
  0.18181818  -0.87878788   0.00057657 
  0.18181818  -0.85858586   0.00030840 
  0.18181818  -0.83838384   0.00348520 
  0.18181818  -0.81818182   0.00091463 
  0.18181818  -0.79797980   0.00185434 
  0.18181818  -0.77777778   0.00826799 
  0.18181818  -0.75757576   0.00292962 
  0.18181818  -0.73737374   0.00264380 
  0.18181818  -0.71717172   0.01060421 
  0.18181818  -0.69696970   0.00806388 
  0.18181818  -0.67676768   0.00516700 
  0.18181818  -0.65656566   0.00969703 
  0.18181818  -0.63636364   0.00819530 
  0.18181818  -0.61616162   0.01144576 
  0.18181818  -0.59595960   0.00158864 
  0.18181818  -0.57575758   0.01894220 
  0.18181818  -0.55555556   0.02183570 
  0.18181818  -0.53535354   0.00286591 
  0.18181818  -0.51515152   0.02687444 
  0.18181818  -0.49494949   0.05663793 
  0.18181818  -0.47474747   0.10370054 
  0.18181818  -0.45454545   0.09263205 
  0.18181818  -0.43434343   0.01867945 
  0.18181818  -0.41414141   0.11194610 
  0.18181818  -0.39393939   0.16609679 
  0.18181818  -0.37373737   0.10897133 
  0.18181818  -0.35353535   0.31111933 
  0.18181818  -0.33333333   0.92084810 
  0.18181818  -0.31313131   1.19098777 
  0.18181818  -0.29292929   1.11492907 
  0.18181818  -0.27272727   1.84612388 
  0.18181818  -0.25252525  13.27965393 
  0.18181818  -0.23232323  98.08603334 
  0.18181818  -0.21212121 305.07117074 
  0.18181818  -0.19191919 432.01911204 
  0.18181818  -0.17171717 293.53171658 
  0.18181818  -0.15151515  99.26739259 
  0.18181818  -0.13131313  14.08987872 
  0.18181818  -0.11111111   1.31803782 
  0.18181818  -0.09090909   1.32318515 
  0.18181818  -0.07070707   1.88107369 
  0.18181818  -0.05050505   0.57538179 
  0.18181818  -0.03030303   0.00877444 
  0.18181818  -0.01010101   0.58922496 
  0.18181818   0.01010101   0.58946590 
  0.18181818   0.03030303   0.00954624 
  0.18181818   0.05050505   0.57509454 
  0.18181818   0.07070707   1.88040243 
  0.18181818   0.09090909   1.31597568 
  0.18181818   0.11111111   1.30440995 
  0.18181818   0.13131313  14.07526814 
  0.18181818   0.15151515  99.25949401 
  0.18181818   0.17171717 293.51960636 
  0.18181818   0.19191919 432.01105529 
  0.18181818   0.21212121 305.07054116 
  0.18181818   0.23232323  98.08387955 
  0.18181818   0.25252525  13.27801100 
  0.18181818   0.27272727   1.84719177 
  0.18181818   0.29292929   1.11574712 
  0.18181818   0.31313131   1.19220113 
  0.18181818   0.33333333   0.91997125 
  0.18181818   0.35353535   0.31168512 
  0.18181818   0.37373737   0.10941675 
  0.18181818   0.39393939   0.16619170 
  0.18181818   0.41414141   0.11188977 
  0.18181818   0.43434343   0.01876254 
  0.18181818   0.45454545   0.09269061 
  0.18181818   0.47474747   0.10371806 
  0.18181818   0.49494949   0.05662811 
  0.18181818   0.51515152   0.02706688 
  0.18181818   0.53535354   0.00279216 
  0.18181818   0.55555556   0.02196457 
  0.18181818   0.57575758   0.01900901 
  0.18181818   0.59595960   0.00158928 
  0.18181818   0.61616162   0.01168783 
  0.18181818   0.63636364   0.00800189 
  0.18181818   0.65656566   0.00997885 
  0.18181818   0.67676768   0.00519485 
  0.18181818   0.69696970   0.00785271 
  0.18181818   0.71717172   0.01101995 
  0.18181818   0.73737374   0.00252740 
  0.18181818   0.75757576   0.00285525 
  0.18181818   0.77777778   0.00865154 
  0.18181818   0.79797980   0.00166378 
  0.18181818   0.81818182   0.00092646 
  0.18181818   0.83838384   0.00382638 
  0.18181818   0.85858586   0.00022706 
  0.18181818   0.87878788   0.00062957 
  0.18181818   0.89898990   0.00090119 
  0.18181818   0.91919192   0.00088913 
  0.18181818   0.93939394   0.00040233 
  0.18181818   0.95959596   0.00066186 
  0.18181818   0.97979798   0.00187214 
  0.18181818   1.00000000   0.00000000 
  0.22727273  -1.00000000   0.00000000 
  0.22727273  -0.97979798   0.00229113 
  0.22727273  -0.95959596   0.00055107 
  0.22727273  -0.93939394   0.00031107 
  0.22727273  -0.91919192   0.00133648 
  0.22727273  -0.89898990   0.00058993 
  0.22727273  -0.87878788   0.00053729 
  0.22727273  -0.85858586   0.00024551 
  0.22727273  -0.83838384   0.00339391 
  0.22727273  -0.81818182   0.00080707 
  0.22727273  -0.79797980   0.00176598 
  0.22727273  -0.77777778   0.00819327 
  0.22727273  -0.75757576   0.00272788 
  0.22727273  -0.73737374   0.00264106 
  0.22727273  -0.71717172   0.01049799 
  0.22727273  -0.69696970   0.00779079 
  0.22727273  -0.67676768   0.00521027 
  0.22727273  -0.65656566   0.00961644 
  0.22727273  -0.63636364   0.00806960 
  0.22727273  -0.61616162   0.01138368 
  0.22727273  -0.59595960   0.00160045 
  0.22727273  -0.57575758   0.01923899 
  0.22727273  -0.55555556   0.02177536 
  0.22727273  -0.53535354   0.00284656 
  0.22727273  -0.51515152   0.02717201 
  0.22727273  -0.49494949   0.05680159 
  0.22727273  -0.47474747   0.10403365 
  0.22727273  -0.45454545   0.09262924 
  0.22727273  -0.43434343   0.01889770 
  0.22727273  -0.41414141   0.11240038 
  0.22727273  -0.39393939   0.16647723 
  0.22727273  -0.37373737   0.10890019 
  0.22727273  -0.35353535   0.31168217 
  0.22727273  -0.33333333   0.92088025 
  0.22727273  -0.31313131   1.19219118 
  0.22727273  -0.29292929   1.11413003 
  0.22727273  -0.27272727   1.84731207 
  0.22727273  -0.25252525  13.28231919 
  0.22727273  -0.23232323  98.08328987 
  0.22727273  -0.21212121 305.07384618 
  0.22727273  -0.19191919 432.04078061 
  0.22727273  -0.17171717 293.55100619 
  0.22727273  -0.15151515  99.27671278 
  0.22727273  -0.13131313  14.10184277 
  0.22727273  -0.11111111   1.31857326 
  0.22727273  -0.09090909   1.31459582 
  0.22727273  -0.07070707   1.88111549 
  0.22727273  -0.05050505   0.57416139 
  0.22727273  -0.03030303   0.00926371 
  0.22727273  -0.01010101   0.58704241 
  0.22727273   0.01010101   0.58743888 
  0.22727273   0.03030303   0.00921983 
  0.22727273   0.05050505   0.57525077 
  0.22727273   0.07070707   1.88064662 
  0.22727273   0.09090909   1.31562640 
  0.22727273   0.11111111   1.32021378 
  0.22727273   0.13131313  14.10178145 
  0.22727273   0.15151515  99.27550967 
  0.22727273   0.17171717 293.54963902 
  0.22727273   0.19191919 432.03995645 
  0.22727273   0.21212121 305.07421520 
  0.22727273   0.23232323  98.08222268 
  0.22727273   0.25252525  13.28185274 
  0.22727273   0.27272727   1.84656130 
  0.22727273   0.29292929   1.11577237 
  0.22727273   0.31313131   1.19173957 
  0.22727273   0.33333333   0.91960300 
  0.22727273   0.35353535   0.31198986 
  0.22727273   0.37373737   0.10938983 
  0.22727273   0.39393939   0.16638920 
  0.22727273   0.41414141   0.11218288 
  0.22727273   0.43434343   0.01894103 
  0.22727273   0.45454545   0.09271415 
  0.22727273   0.47474747   0.10397967 
  0.22727273   0.49494949   0.05675745 
  0.22727273   0.51515152   0.02727643 
  0.22727273   0.53535354   0.00276504 
  0.22727273   0.55555556   0.02187666 
  0.22727273   0.57575758   0.01921336 
  0.22727273   0.59595960   0.00156900 
  0.22727273   0.61616162   0.01158667 
  0.22727273   0.63636364   0.00787852 
  0.22727273   0.65656566   0.00986402 
  0.22727273   0.67676768   0.00526217 
  0.22727273   0.69696970   0.00761916 
  0.22727273   0.71717172   0.01090100 
  0.22727273   0.73737374   0.00249315 
  0.22727273   0.75757576   0.00267492 
  0.22727273   0.77777778   0.00855877 
  0.22727273   0.79797980   0.00157460 
  0.22727273   0.81818182   0.00087487 
  0.22727273   0.83838384   0.00374345 
  0.22727273   0.85858586   0.00016801 
  0.22727273   0.87878788   0.00060722 
  0.22727273   0.89898990   0.00088722 
  0.22727273   0.91919192   0.00098648 
  0.22727273   0.93939394   0.00036046 
  0.22727273   0.95959596   0.00071832 
  0.22727273   0.97979798   0.00193203 
  0.22727273   1.00000000   0.00000000 
  0.27272727  -1.00000000   0.00000000 
  0.27272727  -0.97979798   0.00231247 
  0.27272727  -0.95959596   0.00059148 
  0.27272727  -0.93939394   0.00034530 
  0.27272727  -0.91919192   0.00138914 
  0.27272727  -0.89898990   0.00059184 
  0.27272727  -0.87878788   0.00062034 
  0.27272727  -0.85858586   0.00020697 
  0.27272727  -0.83838384   0.00333096 
  0.27272727  -0.81818182   0.00089735 
  0.27272727  -0.79797980   0.00165253 
  0.27272727  -0.77777778   0.00812070 
  0.27272727  -0.75757576   0.00282796 
  0.27272727  -0.73737374   0.00253909 
  0.27272727  -0.71717172   0.01050699 
  0.27272727  -0.69696970   0.00777243 
  0.27272727  -0.67676768   0.00516838 
  0.27272727  -0.65656566   0.00966453 
  0.27272727  -0.63636364   0.00793344 
  0.27272727  -0.61616162   0.01133242 
  0.27272727  -0.59595960   0.00175746 
  0.27272727  -0.57575758   0.01911838 
  0.27272727  -0.55555556   0.02186034 
  0.27272727  -0.53535354   0.00259166 
  0.27272727  -0.51515152   0.02722117 
  0.27272727  -0.49494949   0.05688772 
  0.27272727  -0.47474747   0.10387355 
  0.27272727  -0.45454545   0.09276618 
  0.27272727  -0.43434343   0.01874758 
  0.27272727  -0.41414141   0.11248316 
  0.27272727  -0.39393939   0.16645386 
  0.27272727  -0.37373737   0.10856018 
  0.27272727  -0.35353535   0.31199044 
  0.27272727  -0.33333333   0.92070480 
  0.27272727  -0.31313131   1.19241384 
  0.27272727  -0.29292929   1.11411597 
  0.27272727  -0.27272727   1.84737663 
  0.27272727  -0.25252525  13.28284599 
  0.27272727  -0.23232323  98.08529732 
  0.27272727  -0.21212121 305.07188762 
  0.27272727  -0.19191919 432.03900009 
  0.27272727  -0.17171717 293.55187187 
  0.27272727  -0.15151515  99.27638043 
  0.27272727  -0.13131313  14.09758932 
  0.27272727  -0.11111111   1.31642268 
  0.27272727  -0.09090909   1.31408426 
  0.27272727  -0.07070707   1.88066185 
  0.27272727  -0.05050505   0.57491702 
  0.27272727  -0.03030303   0.00922260 
  0.27272727  -0.01010101   0.58762992 
  0.27272727   0.01010101   0.58797231 
  0.27272727   0.03030303   0.00913427 
  0.27272727   0.05050505   0.57516471 
  0.27272727   0.07070707   1.88064226 
  0.27272727   0.09090909   1.31367885 
  0.27272727   0.11111111   1.31748088 
  0.27272727   0.13131313  14.09787010 
  0.27272727   0.15151515  99.27751977 
  0.27272727   0.17171717 293.55205954 
  0.27272727   0.19191919 432.03903825 
  0.27272727   0.21212121 305.07264272 
  0.27272727   0.23232323  98.08507042 
  0.27272727   0.25252525  13.28254513 
  0.27272727   0.27272727   1.84702477 
  0.27272727   0.29292929   1.11552111 
  0.27272727   0.31313131   1.19277123 
  0.27272727   0.33333333   0.91937705 
  0.27272727   0.35353535   0.31216383 
  0.27272727   0.37373737   0.10923761 
  0.27272727   0.39393939   0.16645180 
  0.27272727   0.41414141   0.11229047 
  0.27272727   0.43434343   0.01875827 
  0.27272727   0.45454545   0.09290822 
  0.27272727   0.47474747   0.10388416 
  0.27272727   0.49494949   0.05682610 
  0.27272727   0.51515152   0.02733821 
  0.27272727   0.53535354   0.00259264 
  0.27272727   0.55555556   0.02190541 
  0.27272727   0.57575758   0.01915064 
  0.27272727   0.59595960   0.00172859 
  0.27272727   0.61616162   0.01150594 
  0.27272727   0.63636364   0.00779915 
  0.27272727   0.65656566   0.00989288 
  0.27272727   0.67676768   0.00521222 
  0.27272727   0.69696970   0.00764254 
  0.27272727   0.71717172   0.01084398 
  0.27272727   0.73737374   0.00237605 
  0.27272727   0.75757576   0.00274977 
  0.27272727   0.77777778   0.00851657 
  0.27272727   0.79797980   0.00152776 
  0.27272727   0.81818182   0.00097345 
  0.27272727   0.83838384   0.00367488 
  0.27272727   0.85858586   0.00013384 
  0.27272727   0.87878788   0.00068608 
  0.27272727   0.89898990   0.00087979 
  0.27272727   0.91919192   0.00105992 
  0.27272727   0.93939394   0.00039120 
  0.27272727   0.95959596   0.00074356 
  0.27272727   0.97979798   0.00193940 
  0.27272727   1.00000000   0.00000000 
  0.31818182  -1.00000000   0.00000000 
  0.31818182  -0.97979798   0.00229697 
  0.31818182  -0.95959596   0.00055611 
  0.31818182  -0.93939394   0.00039931 
  0.31818182  -0.91919192   0.00132486 
  0.31818182  -0.89898990   0.00055895 
  0.31818182  -0.87878788   0.00061146 
  0.31818182  -0.85858586   0.00022269 
  0.31818182  -0.83838384   0.00339175 
  0.31818182  -0.81818182   0.00094456 
  0.31818182  -0.79797980   0.00172085 
  0.31818182  -0.77777778   0.00815520 
  0.31818182  -0.75757576   0.00284839 
  0.31818182  -0.73737374   0.00252650 
  0.31818182  -0.71717172   0.01050903 
  0.31818182  -0.69696970   0.00788267 
  0.31818182  -0.67676768   0.00520158 
  0.31818182  -0.65656566   0.00969274 
  0.31818182  -0.63636364   0.00796203 
  0.31818182  -0.61616162   0.01136510 
  0.31818182  -0.59595960   0.00173107 
  0.31818182  -0.57575758   0.01906654 
  0.31818182  -0.55555556   0.02189016 
  0.31818182  -0.53535354   0.00264468 
  0.31818182  -0.51515152   0.02710208 
  0.31818182  -0.49494949   0.05683595 
  0.31818182  -0.47474747   0.10391501 
  0.31818182  -0.45454545   0.09277229 
  0.31818182  -0.43434343   0.01871428 
  0.31818182  -0.41414141   0.11236406 
  0.31818182  -0.39393939   0.16634636 
  0.31818182  -0.37373737   0.10885675 
  0.31818182  -0.35353535   0.31155271 
  0.31818182  -0.33333333   0.92071683 
  0.31818182  -0.31313131   1.19204409 
  0.31818182  -0.29292929   1.11406504 
  0.31818182  -0.27272727   1.84736758 
  0.31818182  -0.25252525  13.28211435 
  0.31818182  -0.23232323  98.08384769 
  0.31818182  -0.21212121 305.07419576 
  0.31818182  -0.19191919 432.04206699 
  0.31818182  -0.17171717 293.54879531 
  0.31818182  -0.15151515  99.27461401 
  0.31818182  -0.13131313  14.09857525 
  0.31818182  -0.11111111   1.31652502 
  0.31818182  -0.09090909   1.31418761 
  0.31818182  -0.07070707   1.88000381 
  0.31818182  -0.05050505   0.57501622 